
Predictions were generated on 29-Mar-2023 at 14:16:45 using OpenFAST, compiled as a 64-bit application using single precision at commit v2.5.0
 linked with  NWTC Subroutine Library; ElastoDyn; ServoDyn; HydroDyn; MAP++ (<1.20.10>, <Jan-14-2021>)

Description from the FAST input file: FAST Certification Test #25: NREL 5.0 MW Baseline Wind Turbine with OC4-DeepCwind semi configuration, for use in offshore analysis

Time	PtfmSurge	PtfmSway	PtfmHeave	PtfmRoll	PtfmPitch	PtfmYaw	YawBrMzp	TTDspFA	Wave1Elev	T[1]	T_a[1]	T[2]	T_a[2]	T[3]	T_a[3]
(s)	(m)	(m)	(m)	(deg)	(deg)	(deg)	(kN-m)	(m)	(m)	[N]	[N]	[N]	[N]	[N]	[N]
    0.0500	-1.313E-06	 2.111E-08	 5.999E+00	-4.311E-08	-2.567E-06	-8.680E-08	-8.359E+01	-2.419E-04	 0.000E+00	 1.202E+06	 7.784E+05	 1.202E+06	 7.784E+05	 1.202E+06	 7.784E+05
    0.1000	-1.535E-06	 1.516E-07	 5.996E+00	-2.957E-07	-2.446E-06	-7.672E-07	-2.935E+01	-9.747E-04	 0.000E+00	 1.202E+06	 7.784E+05	 1.202E+06	 7.784E+05	 1.202E+06	 7.784E+05
    0.1500	 5.873E-06	 3.415E-07	 5.991E+00	-5.930E-07	 1.414E-05	-1.646E-06	 7.001E+01	-2.174E-03	 0.000E+00	 1.202E+06	 7.783E+05	 1.202E+06	 7.783E+05	 1.202E+06	 7.783E+05
    0.2000	 2.169E-05	 5.170E-07	 5.984E+00	-6.356E-07	 4.836E-05	-2.121E-06	-6.882E+01	-3.717E-03	 0.000E+00	 1.202E+06	 7.781E+05	 1.202E+06	 7.781E+05	 1.202E+06	 7.781E+05
    0.2500	 4.011E-05	 6.056E-07	 5.975E+00	-1.394E-08	 8.685E-05	-3.202E-06	-2.409E+02	-5.415E-03	 0.000E+00	 1.202E+06	 7.779E+05	 1.202E+06	 7.779E+05	 1.202E+06	 7.779E+05
    0.3000	 5.649E-05	-1.771E-07	 5.964E+00	 3.280E-06	 1.186E-04	-6.248E-06	-3.577E+02	-7.138E-03	 0.000E+00	 1.202E+06	 7.777E+05	 1.202E+06	 7.777E+05	 1.202E+06	 7.777E+05
    0.3500	 7.322E-05	-3.098E-06	 5.951E+00	 1.233E-05	 1.477E-04	-1.236E-05	-5.724E+02	-8.898E-03	 0.000E+00	 1.201E+06	 7.774E+05	 1.201E+06	 7.774E+05	 1.201E+06	 7.774E+05
    0.4000	 9.570E-05	-9.009E-06	 5.936E+00	 2.928E-05	 1.847E-04	-2.324E-05	-7.477E+02	-1.077E-02	 0.000E+00	 1.201E+06	 7.771E+05	 1.201E+06	 7.771E+05	 1.201E+06	 7.771E+05
    0.4500	 1.240E-04	-1.844E-05	 5.919E+00	 5.545E-05	 2.285E-04	-4.024E-05	-7.588E+02	-1.278E-02	 0.000E+00	 1.201E+06	 7.767E+05	 1.201E+06	 7.767E+05	 1.201E+06	 7.767E+05
    0.5000	 1.508E-04	-3.159E-05	 5.901E+00	 9.114E-05	 2.624E-04	-6.354E-05	-7.326E+02	-1.483E-02	 0.000E+00	 1.201E+06	 7.763E+05	 1.201E+06	 7.763E+05	 1.201E+06	 7.763E+05
    0.5500	 1.693E-04	-4.760E-05	 5.880E+00	 1.342E-04	 2.696E-04	-9.291E-05	-6.428E+02	-1.674E-02	 0.000E+00	 1.200E+06	 7.758E+05	 1.200E+06	 7.759E+05	 1.200E+06	 7.758E+05
    0.6000	 1.791E-04	-6.496E-05	 5.857E+00	 1.807E-04	 2.486E-04	-1.275E-04	-3.936E+02	-1.841E-02	 0.000E+00	 1.200E+06	 7.754E+05	 1.200E+06	 7.754E+05	 1.200E+06	 7.753E+05
    0.6500	 1.850E-04	-8.223E-05	 5.833E+00	 2.268E-04	 2.083E-04	-1.653E-04	-1.002E+02	-1.973E-02	 0.000E+00	 1.199E+06	 7.748E+05	 1.200E+06	 7.748E+05	 1.199E+06	 7.748E+05
    0.7000	 1.885E-04	-9.784E-05	 5.806E+00	 2.680E-04	 1.516E-04	-2.039E-04	 1.624E+02	-2.060E-02	 0.000E+00	 1.199E+06	 7.743E+05	 1.199E+06	 7.743E+05	 1.199E+06	 7.742E+05
    0.7500	 1.854E-04	-1.097E-04	 5.778E+00	 2.990E-04	 6.899E-05	-2.410E-04	 4.340E+02	-2.090E-02	 0.000E+00	 1.199E+06	 7.736E+05	 1.199E+06	 7.737E+05	 1.199E+06	 7.736E+05
    0.8000	 1.711E-04	-1.162E-04	 5.748E+00	 3.151E-04	-4.936E-05	-2.745E-04	 6.550E+02	-2.059E-02	 0.000E+00	 1.198E+06	 7.730E+05	 1.198E+06	 7.730E+05	 1.198E+06	 7.730E+05
    0.8500	 1.475E-04	-1.163E-04	 5.716E+00	 3.136E-04	-1.994E-04	-3.025E-04	 7.803E+02	-1.978E-02	 0.000E+00	 1.198E+06	 7.723E+05	 1.198E+06	 7.723E+05	 1.198E+06	 7.723E+05
    0.9000	 1.210E-04	-1.095E-04	 5.682E+00	 2.931E-04	-3.662E-04	-3.238E-04	 8.663E+02	-1.871E-02	 0.000E+00	 1.197E+06	 7.716E+05	 1.197E+06	 7.716E+05	 1.197E+06	 7.716E+05
    0.9500	 9.545E-05	-9.601E-05	 5.647E+00	 2.537E-04	-5.409E-04	-3.378E-04	 8.906E+02	-1.758E-02	 0.000E+00	 1.196E+06	 7.708E+05	 1.197E+06	 7.708E+05	 1.196E+06	 7.708E+05
    1.0000	 6.784E-05	-7.609E-05	 5.610E+00	 1.965E-04	-7.293E-04	-3.444E-04	 7.960E+02	-1.649E-02	 0.000E+00	 1.196E+06	 7.700E+05	 1.196E+06	 7.700E+05	 1.196E+06	 7.700E+05
    1.0500	 3.302E-05	-5.061E-05	 5.571E+00	 1.241E-04	-9.417E-04	-3.443E-04	 6.322E+02	-1.546E-02	 0.000E+00	 1.195E+06	 7.692E+05	 1.195E+06	 7.692E+05	 1.195E+06	 7.692E+05
    1.1000	-9.354E-06	-2.095E-05	 5.531E+00	 4.051E-05	-1.178E-03	-3.388E-04	 4.470E+02	-1.447E-02	 0.000E+00	 1.195E+06	 7.683E+05	 1.195E+06	 7.683E+05	 1.195E+06	 7.683E+05
    1.1500	-5.469E-05	 1.107E-05	 5.488E+00	-4.912E-05	-1.429E-03	-3.295E-04	 2.352E+02	-1.358E-02	 0.000E+00	 1.194E+06	 7.674E+05	 1.194E+06	 7.674E+05	 1.194E+06	 7.674E+05
    1.2000	-1.001E-04	 4.331E-05	 5.445E+00	-1.387E-04	-1.686E-03	-3.181E-04	 3.338E+01	-1.279E-02	 0.000E+00	 1.193E+06	 7.664E+05	 1.193E+06	 7.664E+05	 1.193E+06	 7.664E+05
    1.2500	-1.487E-04	 7.340E-05	 5.399E+00	-2.218E-04	-1.957E-03	-3.064E-04	-1.144E+02	-1.204E-02	 0.000E+00	 1.192E+06	 7.655E+05	 1.192E+06	 7.654E+05	 1.192E+06	 7.655E+05
    1.3000	-2.064E-04	 9.897E-05	 5.353E+00	-2.919E-04	-2.253E-03	-2.955E-04	-2.048E+02	-1.134E-02	 0.000E+00	 1.192E+06	 7.644E+05	 1.192E+06	 7.644E+05	 1.192E+06	 7.645E+05
    1.3500	-2.746E-04	 1.181E-04	 5.304E+00	-3.442E-04	-2.578E-03	-2.863E-04	-2.183E+02	-1.072E-02	 0.000E+00	 1.191E+06	 7.634E+05	 1.191E+06	 7.634E+05	 1.191E+06	 7.634E+05
    1.4000	-3.495E-04	 1.296E-04	 5.254E+00	-3.752E-04	-2.922E-03	-2.788E-04	-1.431E+02	-1.034E-02	 0.000E+00	 1.190E+06	 7.623E+05	 1.190E+06	 7.623E+05	 1.190E+06	 7.623E+05
    1.4500	-4.274E-04	 1.328E-04	 5.203E+00	-3.837E-04	-3.278E-03	-2.724E-04	-3.052E+01	-1.028E-02	 0.000E+00	 1.189E+06	 7.612E+05	 1.189E+06	 7.612E+05	 1.189E+06	 7.612E+05
    1.5000	-5.100E-04	 1.281E-04	 5.151E+00	-3.709E-04	-3.648E-03	-2.663E-04	 6.315E+01	-1.055E-02	 0.000E+00	 1.188E+06	 7.601E+05	 1.188E+06	 7.601E+05	 1.188E+06	 7.601E+05
    1.5500	-6.014E-04	 1.171E-04	 5.096E+00	-3.409E-04	-4.042E-03	-2.597E-04	 1.170E+02	-1.101E-02	 0.000E+00	 1.188E+06	 7.589E+05	 1.188E+06	 7.589E+05	 1.188E+06	 7.589E+05
    1.6000	-7.019E-04	 1.019E-04	 5.041E+00	-2.994E-04	-4.460E-03	-2.521E-04	 1.155E+02	-1.154E-02	 0.000E+00	 1.187E+06	 7.577E+05	 1.187E+06	 7.577E+05	 1.187E+06	 7.578E+05
    1.6500	-8.061E-04	 8.479E-05	 4.984E+00	-2.526E-04	-4.890E-03	-2.436E-04	 5.679E+01	-1.209E-02	 0.000E+00	 1.186E+06	 7.565E+05	 1.186E+06	 7.565E+05	 1.186E+06	 7.565E+05
    1.7000	-9.079E-04	 6.807E-05	 4.927E+00	-2.065E-04	-5.318E-03	-2.347E-04	-3.799E+01	-1.260E-02	 0.000E+00	 1.185E+06	 7.553E+05	 1.185E+06	 7.552E+05	 1.185E+06	 7.553E+05
    1.7500	-1.006E-03	 5.356E-05	 4.867E+00	-1.660E-04	-5.743E-03	-2.262E-04	-1.536E+02	-1.303E-02	 0.000E+00	 1.184E+06	 7.540E+05	 1.184E+06	 7.539E+05	 1.184E+06	 7.540E+05
    1.8000	-1.103E-03	 4.235E-05	 4.807E+00	-1.340E-04	-6.169E-03	-2.190E-04	-2.726E+02	-1.333E-02	 0.000E+00	 1.183E+06	 7.527E+05	 1.183E+06	 7.526E+05	 1.183E+06	 7.527E+05
    1.8500	-1.200E-03	 3.474E-05	 4.746E+00	-1.117E-04	-6.599E-03	-2.140E-04	-3.587E+02	-1.354E-02	 0.000E+00	 1.182E+06	 7.514E+05	 1.182E+06	 7.513E+05	 1.182E+06	 7.514E+05
    1.9000	-1.294E-03	 3.037E-05	 4.683E+00	-9.811E-05	-7.024E-03	-2.121E-04	-3.933E+02	-1.372E-02	 0.000E+00	 1.181E+06	 7.501E+05	 1.181E+06	 7.500E+05	 1.181E+06	 7.501E+05
    1.9500	-1.380E-03	 2.851E-05	 4.619E+00	-9.147E-05	-7.437E-03	-2.135E-04	-3.939E+02	-1.393E-02	 0.000E+00	 1.180E+06	 7.487E+05	 1.180E+06	 7.486E+05	 1.180E+06	 7.487E+05
    2.0000	-1.461E-03	 2.817E-05	 4.555E+00	-8.924E-05	-7.842E-03	-2.183E-04	-3.822E+02	-1.411E-02	 0.000E+00	 1.179E+06	 7.473E+05	 1.179E+06	 7.472E+05	 1.179E+06	 7.473E+05
    2.0500	-1.542E-03	 2.834E-05	 4.489E+00	-8.872E-05	-8.252E-03	-2.262E-04	-3.667E+02	-1.410E-02	 0.000E+00	 1.178E+06	 7.459E+05	 1.178E+06	 7.458E+05	 1.178E+06	 7.459E+05
    2.1000	-1.628E-03	 2.816E-05	 4.422E+00	-8.752E-05	-8.677E-03	-2.373E-04	-3.441E+02	-1.371E-02	 0.000E+00	 1.177E+06	 7.445E+05	 1.177E+06	 7.443E+05	 1.177E+06	 7.445E+05
    2.1500	-1.719E-03	 2.705E-05	 4.354E+00	-8.397E-05	-9.117E-03	-2.513E-04	-2.990E+02	-1.286E-02	 0.000E+00	 1.176E+06	 7.430E+05	 1.176E+06	 7.429E+05	 1.176E+06	 7.430E+05
    2.2000	-1.811E-03	 2.470E-05	 4.286E+00	-7.711E-05	-9.563E-03	-2.678E-04	-2.203E+02	-1.152E-02	 0.000E+00	 1.175E+06	 7.416E+05	 1.175E+06	 7.414E+05	 1.175E+06	 7.416E+05
    2.2500	-1.905E-03	 2.099E-05	 4.217E+00	-6.651E-05	-1.001E-02	-2.862E-04	-1.154E+02	-9.748E-03	 0.000E+00	 1.174E+06	 7.401E+05	 1.173E+06	 7.399E+05	 1.174E+06	 7.401E+05
    2.3000	-2.002E-03	 1.600E-05	 4.146E+00	-5.227E-05	-1.047E-02	-3.056E-04	 2.860E+00	-7.624E-03	 0.000E+00	 1.172E+06	 7.386E+05	 1.172E+06	 7.384E+05	 1.172E+06	 7.386E+05
    2.3500	-2.102E-03	 9.930E-06	 4.076E+00	-3.494E-05	-1.094E-02	-3.249E-04	 1.239E+02	-5.322E-03	 0.000E+00	 1.171E+06	 7.371E+05	 1.171E+06	 7.369E+05	 1.171E+06	 7.371E+05
    2.4000	-2.203E-03	 3.053E-06	 4.004E+00	-1.520E-05	-1.141E-02	-3.432E-04	 2.274E+02	-3.097E-03	 0.000E+00	 1.170E+06	 7.356E+05	 1.170E+06	 7.354E+05	 1.170E+06	 7.356E+05
    2.4500	-2.294E-03	-4.361E-06	 3.932E+00	 6.192E-06	-1.185E-02	-3.597E-04	 2.816E+02	-1.210E-03	 0.000E+00	 1.169E+06	 7.340E+05	 1.169E+06	 7.338E+05	 1.169E+06	 7.340E+05
    2.5000	-2.373E-03	-1.206E-05	 3.859E+00	 2.857E-05	-1.226E-02	-3.739E-04	 2.591E+02	 1.686E-04	 0.000E+00	 1.168E+06	 7.325E+05	 1.168E+06	 7.322E+05	 1.168E+06	 7.325E+05
    2.5500	-2.440E-03	-1.990E-05	 3.785E+00	 5.154E-05	-1.264E-02	-3.860E-04	 1.528E+02	 9.888E-04	 0.000E+00	 1.167E+06	 7.309E+05	 1.166E+06	 7.307E+05	 1.167E+06	 7.309E+05
    2.6000	-2.495E-03	-2.798E-05	 3.711E+00	 7.532E-05	-1.298E-02	-3.968E-04	-1.232E+01	 1.257E-03	 0.000E+00	 1.165E+06	 7.293E+05	 1.165E+06	 7.291E+05	 1.165E+06	 7.293E+05
    2.6500	-2.536E-03	-3.661E-05	 3.636E+00	 1.006E-04	-1.329E-02	-4.077E-04	-1.863E+02	 9.581E-04	 0.000E+00	 1.164E+06	 7.277E+05	 1.164E+06	 7.275E+05	 1.164E+06	 7.277E+05
    2.7000	-2.560E-03	-4.618E-05	 3.560E+00	 1.282E-04	-1.356E-02	-4.202E-04	-3.213E+02	 4.781E-05	 0.000E+00	 1.163E+06	 7.261E+05	 1.163E+06	 7.259E+05	 1.163E+06	 7.261E+05
    2.7500	-2.565E-03	-5.697E-05	 3.485E+00	 1.587E-04	-1.378E-02	-4.353E-04	-3.872E+02	-1.505E-03	 0.000E+00	 1.162E+06	 7.245E+05	 1.162E+06	 7.243E+05	 1.162E+06	 7.245E+05
    2.8000	-2.557E-03	-6.911E-05	 3.408E+00	 1.922E-04	-1.396E-02	-4.536E-04	-3.674E+02	-3.688E-03	 0.000E+00	 1.161E+06	 7.229E+05	 1.161E+06	 7.226E+05	 1.161E+06	 7.229E+05
    2.8500	-2.540E-03	-8.244E-05	 3.332E+00	 2.281E-04	-1.413E-02	-4.749E-04	-2.564E+02	-6.469E-03	 0.000E+00	 1.159E+06	 7.212E+05	 1.159E+06	 7.210E+05	 1.159E+06	 7.212E+05
    2.9000	-2.517E-03	-9.635E-05	 3.254E+00	 2.646E-04	-1.428E-02	-4.982E-04	-6.796E+01	-9.810E-03	 0.000E+00	 1.158E+06	 7.196E+05	 1.158E+06	 7.194E+05	 1.158E+06	 7.196E+05
    2.9500	-2.489E-03	-1.097E-04	 3.177E+00	 2.987E-04	-1.442E-02	-5.221E-04	 1.634E+02	-1.364E-02	 0.000E+00	 1.157E+06	 7.180E+05	 1.157E+06	 7.177E+05	 1.157E+06	 7.179E+05
    3.0000	-2.456E-03	-1.209E-04	 3.099E+00	 3.262E-04	-1.456E-02	-5.445E-04	 3.918E+02	-1.779E-02	 0.000E+00	 1.156E+06	 7.163E+05	 1.156E+06	 7.161E+05	 1.156E+06	 7.163E+05
    3.0500	-2.427E-03	-1.283E-04	 3.021E+00	 3.426E-04	-1.471E-02	-5.637E-04	 5.771E+02	-2.197E-02	 0.000E+00	 1.155E+06	 7.147E+05	 1.154E+06	 7.144E+05	 1.155E+06	 7.146E+05
    3.1000	-2.408E-03	-1.303E-04	 2.943E+00	 3.438E-04	-1.489E-02	-5.780E-04	 6.990E+02	-2.588E-02	 0.000E+00	 1.153E+06	 7.130E+05	 1.153E+06	 7.128E+05	 1.153E+06	 7.130E+05
    3.1500	-2.405E-03	-1.257E-04	 2.864E+00	 3.269E-04	-1.512E-02	-5.865E-04	 7.557E+02	-2.926E-02	 0.000E+00	 1.152E+06	 7.113E+05	 1.152E+06	 7.111E+05	 1.152E+06	 7.113E+05
    3.2000	-2.418E-03	-1.139E-04	 2.785E+00	 2.906E-04	-1.540E-02	-5.887E-04	 7.490E+02	-3.196E-02	 0.000E+00	 1.151E+06	 7.097E+05	 1.151E+06	 7.094E+05	 1.151E+06	 7.096E+05
    3.2500	-2.449E-03	-9.505E-05	 2.706E+00	 2.353E-04	-1.573E-02	-5.847E-04	 6.766E+02	-3.391E-02	 0.000E+00	 1.150E+06	 7.080E+05	 1.149E+06	 7.078E+05	 1.150E+06	 7.080E+05
    3.3000	-2.500E-03	-6.996E-05	 2.627E+00	 1.631E-04	-1.612E-02	-5.750E-04	 5.387E+02	-3.509E-02	 0.000E+00	 1.148E+06	 7.063E+05	 1.148E+06	 7.061E+05	 1.148E+06	 7.063E+05
    3.3500	-2.576E-03	-3.998E-05	 2.548E+00	 7.787E-05	-1.659E-02	-5.609E-04	 3.466E+02	-3.548E-02	 0.000E+00	 1.147E+06	 7.046E+05	 1.147E+06	 7.044E+05	 1.147E+06	 7.046E+05
    3.4000	-2.678E-03	-6.981E-06	 2.469E+00	-1.514E-05	-1.713E-02	-5.438E-04	 1.226E+02	-3.513E-02	 0.000E+00	 1.146E+06	 7.030E+05	 1.146E+06	 7.027E+05	 1.146E+06	 7.030E+05
    3.4500	-2.803E-03	 2.694E-05	 2.389E+00	-1.102E-04	-1.773E-02	-5.258E-04	-1.086E+02	-3.411E-02	 0.000E+00	 1.145E+06	 7.013E+05	 1.144E+06	 7.010E+05	 1.145E+06	 7.013E+05
    3.5000	-2.947E-03	 5.972E-05	 2.310E+00	-2.014E-04	-1.839E-02	-5.087E-04	-3.254E+02	-3.245E-02	 0.000E+00	 1.143E+06	 6.996E+05	 1.143E+06	 6.993E+05	 1.143E+06	 6.996E+05
    3.5500	-3.109E-03	 8.944E-05	 2.230E+00	-2.835E-04	-1.910E-02	-4.943E-04	-5.075E+02	-3.015E-02	 0.000E+00	 1.142E+06	 6.979E+05	 1.142E+06	 6.977E+05	 1.142E+06	 6.980E+05
    3.6000	-3.292E-03	 1.144E-04	 2.151E+00	-3.519E-04	-1.986E-02	-4.841E-04	-6.308E+02	-2.715E-02	 0.000E+00	 1.141E+06	 6.963E+05	 1.141E+06	 6.960E+05	 1.141E+06	 6.963E+05
    3.6500	-3.495E-03	 1.333E-04	 2.072E+00	-4.027E-04	-2.068E-02	-4.792E-04	-6.744E+02	-2.352E-02	 0.000E+00	 1.140E+06	 6.946E+05	 1.139E+06	 6.943E+05	 1.140E+06	 6.946E+05
    3.7000	-3.711E-03	 1.451E-04	 1.992E+00	-4.338E-04	-2.153E-02	-4.799E-04	-6.355E+02	-1.939E-02	 0.000E+00	 1.138E+06	 6.929E+05	 1.138E+06	 6.926E+05	 1.138E+06	 6.930E+05
    3.7500	-3.935E-03	 1.497E-04	 1.913E+00	-4.444E-04	-2.241E-02	-4.859E-04	-5.361E+02	-1.500E-02	 0.000E+00	 1.137E+06	 6.913E+05	 1.137E+06	 6.909E+05	 1.137E+06	 6.913E+05
    3.8000	-4.162E-03	 1.472E-04	 1.834E+00	-4.358E-04	-2.328E-02	-4.964E-04	-4.122E+02	-1.060E-02	 0.000E+00	 1.136E+06	 6.896E+05	 1.136E+06	 6.893E+05	 1.136E+06	 6.896E+05
    3.8500	-4.389E-03	 1.388E-04	 1.755E+00	-4.109E-04	-2.416E-02	-5.104E-04	-2.961E+02	-6.445E-03	 0.000E+00	 1.135E+06	 6.880E+05	 1.134E+06	 6.876E+05	 1.135E+06	 6.880E+05
    3.9000	-4.611E-03	 1.259E-04	 1.676E+00	-3.738E-04	-2.501E-02	-5.269E-04	-2.060E+02	-2.757E-03	 0.000E+00	 1.133E+06	 6.863E+05	 1.133E+06	 6.859E+05	 1.133E+06	 6.863E+05
    3.9500	-4.819E-03	 1.103E-04	 1.597E+00	-3.294E-04	-2.583E-02	-5.452E-04	-1.463E+02	 2.506E-04	 0.000E+00	 1.132E+06	 6.847E+05	 1.132E+06	 6.843E+05	 1.132E+06	 6.847E+05
    4.0000	-5.006E-03	 9.390E-05	 1.519E+00	-2.829E-04	-2.659E-02	-5.648E-04	-1.153E+02	 2.439E-03	 0.000E+00	 1.131E+06	 6.830E+05	 1.131E+06	 6.826E+05	 1.131E+06	 6.831E+05
    4.0500	-5.168E-03	 7.848E-05	 1.441E+00	-2.392E-04	-2.728E-02	-5.853E-04	-1.061E+02	 3.774E-03	 0.000E+00	 1.130E+06	 6.814E+05	 1.129E+06	 6.809E+05	 1.130E+06	 6.814E+05
    4.1000	-5.304E-03	 6.541E-05	 1.363E+00	-2.017E-04	-2.790E-02	-6.068E-04	-1.048E+02	 4.297E-03	 0.000E+00	 1.129E+06	 6.798E+05	 1.128E+06	 6.793E+05	 1.129E+06	 6.798E+05
    4.1500	-5.416E-03	 5.538E-05	 1.285E+00	-1.723E-04	-2.845E-02	-6.291E-04	-9.428E+01	 4.064E-03	 0.000E+00	 1.127E+06	 6.782E+05	 1.127E+06	 6.777E+05	 1.127E+06	 6.782E+05
    4.2000	-5.504E-03	 4.833E-05	 1.208E+00	-1.509E-04	-2.894E-02	-6.522E-04	-6.547E+01	 3.100E-03	 0.000E+00	 1.126E+06	 6.765E+05	 1.126E+06	 6.761E+05	 1.126E+06	 6.766E+05
    4.2500	-5.566E-03	 4.358E-05	 1.131E+00	-1.357E-04	-2.936E-02	-6.759E-04	-2.441E+01	 1.420E-03	 0.000E+00	 1.125E+06	 6.749E+05	 1.125E+06	 6.744E+05	 1.125E+06	 6.749E+05
    4.3000	-5.607E-03	 4.007E-05	 1.054E+00	-1.240E-04	-2.972E-02	-6.997E-04	 1.446E+01	-9.150E-04	 0.000E+00	 1.124E+06	 6.733E+05	 1.123E+06	 6.728E+05	 1.124E+06	 6.733E+05
    4.3500	-5.632E-03	 3.656E-05	 9.774E-01	-1.125E-04	-3.005E-02	-7.234E-04	 4.321E+01	-3.768E-03	 0.000E+00	 1.123E+06	 6.717E+05	 1.122E+06	 6.712E+05	 1.123E+06	 6.717E+05
    4.4000	-5.648E-03	 3.193E-05	 9.013E-01	-9.821E-05	-3.035E-02	-7.467E-04	 6.897E+01	-6.951E-03	 0.000E+00	 1.121E+06	 6.702E+05	 1.121E+06	 6.696E+05	 1.121E+06	 6.702E+05
    4.4500	-5.660E-03	 2.533E-05	 8.256E-01	-7.892E-05	-3.063E-02	-7.693E-04	 1.082E+02	-1.025E-02	 0.000E+00	 1.120E+06	 6.686E+05	 1.120E+06	 6.681E+05	 1.120E+06	 6.686E+05
    4.5000	-5.671E-03	 1.640E-05	 7.503E-01	-5.361E-05	-3.092E-02	-7.910E-04	 1.736E+02	-1.343E-02	 0.000E+00	 1.119E+06	 6.670E+05	 1.119E+06	 6.665E+05	 1.119E+06	 6.670E+05
    4.5500	-5.684E-03	 5.322E-06	 6.754E-01	-2.256E-05	-3.121E-02	-8.112E-04	 2.662E+02	-1.624E-02	 0.000E+00	 1.118E+06	 6.654E+05	 1.117E+06	 6.649E+05	 1.118E+06	 6.654E+05
    4.6000	-5.706E-03	-7.346E-06	 6.010E-01	 1.282E-05	-3.152E-02	-8.291E-04	 3.762E+02	-1.846E-02	 0.000E+00	 1.117E+06	 6.639E+05	 1.116E+06	 6.634E+05	 1.117E+06	 6.639E+05
    4.6500	-5.741E-03	-2.082E-05	 5.270E-01	 5.056E-05	-3.187E-02	-8.437E-04	 4.854E+02	-1.995E-02	 0.000E+00	 1.116E+06	 6.624E+05	 1.115E+06	 6.618E+05	 1.116E+06	 6.624E+05
    4.7000	-5.790E-03	-3.428E-05	 4.535E-01	 8.852E-05	-3.226E-02	-8.543E-04	 5.665E+02	-2.071E-02	 0.000E+00	 1.114E+06	 6.608E+05	 1.114E+06	 6.603E+05	 1.114E+06	 6.608E+05
    4.7500	-5.849E-03	-4.701E-05	 3.805E-01	 1.247E-04	-3.267E-02	-8.601E-04	 5.862E+02	-2.084E-02	 0.000E+00	 1.113E+06	 6.593E+05	 1.113E+06	 6.588E+05	 1.113E+06	 6.593E+05
    4.8000	-5.915E-03	-5.844E-05	 3.079E-01	 1.576E-04	-3.310E-02	-8.610E-04	 5.165E+02	-2.052E-02	 0.000E+00	 1.112E+06	 6.578E+05	 1.112E+06	 6.573E+05	 1.112E+06	 6.578E+05
    4.8500	-5.989E-03	-6.821E-05	 2.359E-01	 1.860E-04	-3.356E-02	-8.576E-04	 3.515E+02	-1.988E-02	 0.000E+00	 1.111E+06	 6.563E+05	 1.111E+06	 6.558E+05	 1.111E+06	 6.563E+05
    4.9000	-6.068E-03	-7.619E-05	 1.644E-01	 2.094E-04	-3.403E-02	-8.513E-04	 1.169E+02	-1.904E-02	 0.000E+00	 1.110E+06	 6.548E+05	 1.110E+06	 6.543E+05	 1.110E+06	 6.548E+05
    4.9500	-6.151E-03	-8.245E-05	 9.340E-02	 2.280E-04	-3.451E-02	-8.441E-04	-1.384E+02	-1.808E-02	 0.000E+00	 1.109E+06	 6.534E+05	 1.108E+06	 6.528E+05	 1.109E+06	 6.534E+05
    5.0000	-6.234E-03	-8.720E-05	 2.298E-02	 2.422E-04	-3.500E-02	-8.379E-04	-3.604E+02	-1.710E-02	 0.000E+00	 1.108E+06	 6.519E+05	 1.107E+06	 6.513E+05	 1.108E+06	 6.519E+05
    5.0500	-6.314E-03	-9.063E-05	-4.689E-02	 2.523E-04	-3.548E-02	-8.347E-04	-5.071E+02	-1.613E-02	 0.000E+00	 1.107E+06	 6.505E+05	 1.106E+06	 6.499E+05	 1.107E+06	 6.505E+05
    5.1000	-6.393E-03	-9.290E-05	-1.162E-01	 2.587E-04	-3.596E-02	-8.356E-04	-5.554E+02	-1.521E-02	 0.000E+00	 1.106E+06	 6.490E+05	 1.105E+06	 6.485E+05	 1.106E+06	 6.490E+05
    5.1500	-6.471E-03	-9.408E-05	-1.849E-01	 2.615E-04	-3.644E-02	-8.411E-04	-5.013E+02	-1.438E-02	 0.000E+00	 1.105E+06	 6.476E+05	 1.104E+06	 6.470E+05	 1.105E+06	 6.476E+05
    5.2000	-6.549E-03	-9.411E-05	-2.530E-01	 2.604E-04	-3.691E-02	-8.508E-04	-3.613E+02	-1.373E-02	 0.000E+00	 1.104E+06	 6.462E+05	 1.103E+06	 6.456E+05	 1.104E+06	 6.462E+05
    5.2500	-6.625E-03	-9.275E-05	-3.205E-01	 2.549E-04	-3.738E-02	-8.634E-04	-1.710E+02	-1.342E-02	 0.000E+00	 1.102E+06	 6.448E+05	 1.102E+06	 6.442E+05	 1.102E+06	 6.448E+05
    5.3000	-6.696E-03	-8.954E-05	-3.873E-01	 2.435E-04	-3.785E-02	-8.774E-04	 2.396E+01	-1.355E-02	 0.000E+00	 1.101E+06	 6.434E+05	 1.101E+06	 6.428E+05	 1.101E+06	 6.434E+05
    5.3500	-6.764E-03	-8.383E-05	-4.536E-01	 2.248E-04	-3.830E-02	-8.913E-04	 1.837E+02	-1.415E-02	 0.000E+00	 1.100E+06	 6.421E+05	 1.100E+06	 6.415E+05	 1.100E+06	 6.421E+05
    5.4000	-6.833E-03	-7.495E-05	-5.191E-01	 1.968E-04	-3.876E-02	-9.037E-04	 2.875E+02	-1.518E-02	 0.000E+00	 1.099E+06	 6.407E+05	 1.099E+06	 6.401E+05	 1.099E+06	 6.407E+05
    5.4500	-6.904E-03	-6.230E-05	-5.840E-01	 1.584E-04	-3.922E-02	-9.137E-04	 3.335E+02	-1.651E-02	 0.000E+00	 1.098E+06	 6.394E+05	 1.098E+06	 6.388E+05	 1.098E+06	 6.394E+05
    5.5000	-6.978E-03	-4.555E-05	-6.482E-01	 1.087E-04	-3.969E-02	-9.209E-04	 3.282E+02	-1.802E-02	 0.000E+00	 1.097E+06	 6.381E+05	 1.097E+06	 6.374E+05	 1.097E+06	 6.381E+05
    5.5500	-7.056E-03	-2.479E-05	-7.117E-01	 4.822E-05	-4.017E-02	-9.254E-04	 2.770E+02	-1.957E-02	 0.000E+00	 1.096E+06	 6.368E+05	 1.096E+06	 6.361E+05	 1.096E+06	 6.368E+05
    5.6000	-7.141E-03	-5.905E-07	-7.745E-01	-2.126E-05	-4.068E-02	-9.277E-04	 1.837E+02	-2.103E-02	 0.000E+00	 1.096E+06	 6.355E+05	 1.095E+06	 6.348E+05	 1.096E+06	 6.355E+05
    5.6500	-7.234E-03	 2.591E-05	-8.366E-01	-9.653E-05	-4.120E-02	-9.284E-04	 5.545E+01	-2.230E-02	 0.000E+00	 1.095E+06	 6.342E+05	 1.094E+06	 6.335E+05	 1.095E+06	 6.342E+05
    5.7000	-7.338E-03	 5.310E-05	-8.980E-01	-1.732E-04	-4.175E-02	-9.287E-04	-9.526E+01	-2.334E-02	 0.000E+00	 1.094E+06	 6.329E+05	 1.093E+06	 6.323E+05	 1.094E+06	 6.329E+05
    5.7500	-7.450E-03	 7.908E-05	-9.587E-01	-2.460E-04	-4.233E-02	-9.298E-04	-2.533E+02	-2.417E-02	 0.000E+00	 1.093E+06	 6.317E+05	 1.092E+06	 6.310E+05	 1.093E+06	 6.317E+05
    5.8000	-7.570E-03	 1.020E-04	-1.019E+00	-3.099E-04	-4.293E-02	-9.330E-04	-4.035E+02	-2.481E-02	 0.000E+00	 1.092E+06	 6.305E+05	 1.091E+06	 6.298E+05	 1.092E+06	 6.305E+05
    5.8500	-7.697E-03	 1.201E-04	-1.078E+00	-3.604E-04	-4.355E-02	-9.395E-04	-5.294E+02	-2.523E-02	 0.000E+00	 1.091E+06	 6.292E+05	 1.090E+06	 6.286E+05	 1.091E+06	 6.292E+05
    5.9000	-7.833E-03	 1.322E-04	-1.136E+00	-3.940E-04	-4.420E-02	-9.505E-04	-6.106E+02	-2.532E-02	 0.000E+00	 1.090E+06	 6.280E+05	 1.090E+06	 6.273E+05	 1.090E+06	 6.281E+05
    5.9500	-7.981E-03	 1.377E-04	-1.194E+00	-4.091E-04	-4.488E-02	-9.665E-04	-6.279E+02	-2.496E-02	 0.000E+00	 1.089E+06	 6.269E+05	 1.089E+06	 6.262E+05	 1.089E+06	 6.269E+05
    6.0000	-8.140E-03	 1.365E-04	-1.251E+00	-4.055E-04	-4.559E-02	-9.877E-04	-5.735E+02	-2.406E-02	 0.000E+00	 1.088E+06	 6.257E+05	 1.088E+06	 6.250E+05	 1.088E+06	 6.257E+05
    6.0500	-8.307E-03	 1.291E-04	-1.307E+00	-3.846E-04	-4.632E-02	-1.014E-03	-4.579E+02	-2.257E-02	 0.000E+00	 1.087E+06	 6.246E+05	 1.087E+06	 6.238E+05	 1.087E+06	 6.246E+05
    6.1000	-8.481E-03	 1.166E-04	-1.362E+00	-3.492E-04	-4.707E-02	-1.043E-03	-3.058E+02	-2.050E-02	 0.000E+00	 1.087E+06	 6.234E+05	 1.086E+06	 6.227E+05	 1.087E+06	 6.234E+05
    6.1500	-8.660E-03	 1.003E-04	-1.417E+00	-3.033E-04	-4.784E-02	-1.076E-03	-1.451E+02	-1.794E-02	 0.000E+00	 1.086E+06	 6.223E+05	 1.085E+06	 6.215E+05	 1.086E+06	 6.223E+05
    6.2000	-8.842E-03	 8.182E-05	-1.471E+00	-2.513E-04	-4.860E-02	-1.109E-03	 2.848E+00	-1.507E-02	 0.000E+00	 1.085E+06	 6.212E+05	 1.084E+06	 6.204E+05	 1.085E+06	 6.212E+05
    6.2500	-9.019E-03	 6.282E-05	-1.523E+00	-1.979E-04	-4.936E-02	-1.142E-03	 1.250E+02	-1.213E-02	 0.000E+00	 1.084E+06	 6.201E+05	 1.084E+06	 6.193E+05	 1.084E+06	 6.201E+05
    6.3000	-9.186E-03	 4.492E-05	-1.576E+00	-1.475E-04	-5.010E-02	-1.175E-03	 2.149E+02	-9.370E-03	 0.000E+00	 1.083E+06	 6.191E+05	 1.083E+06	 6.183E+05	 1.083E+06	 6.191E+05
    6.3500	-9.337E-03	 2.953E-05	-1.627E+00	-1.040E-04	-5.079E-02	-1.205E-03	 2.724E+02	-6.968E-03	 0.000E+00	 1.083E+06	 6.180E+05	 1.082E+06	 6.172E+05	 1.083E+06	 6.180E+05
    6.4000	-9.472E-03	 1.774E-05	-1.677E+00	-7.035E-05	-5.144E-02	-1.233E-03	 3.045E+02	-5.024E-03	 0.000E+00	 1.082E+06	 6.170E+05	 1.081E+06	 6.162E+05	 1.082E+06	 6.170E+05
    6.4500	-9.590E-03	 1.014E-05	-1.727E+00	-4.810E-05	-5.204E-02	-1.259E-03	 3.223E+02	-3.573E-03	 0.000E+00	 1.081E+06	 6.160E+05	 1.080E+06	 6.151E+05	 1.081E+06	 6.160E+05
    6.5000	-9.690E-03	 6.734E-06	-1.776E+00	-3.715E-05	-5.260E-02	-1.281E-03	 3.342E+02	-2.621E-03	 0.000E+00	 1.080E+06	 6.150E+05	 1.080E+06	 6.141E+05	 1.080E+06	 6.150E+05
    6.5500	-9.772E-03	 6.932E-06	-1.824E+00	-3.586E-05	-5.310E-02	-1.301E-03	 3.407E+02	-2.173E-03	 0.000E+00	 1.080E+06	 6.140E+05	 1.079E+06	 6.132E+05	 1.080E+06	 6.140E+05
    6.6000	-9.838E-03	 9.633E-06	-1.871E+00	-4.125E-05	-5.357E-02	-1.318E-03	 3.371E+02	-2.225E-03	 0.000E+00	 1.079E+06	 6.131E+05	 1.078E+06	 6.122E+05	 1.079E+06	 6.131E+05
    6.6500	-9.891E-03	 1.338E-05	-1.917E+00	-4.943E-05	-5.399E-02	-1.332E-03	 3.212E+02	-2.772E-03	 0.000E+00	 1.078E+06	 6.121E+05	 1.078E+06	 6.112E+05	 1.078E+06	 6.121E+05
    6.7000	-9.934E-03	 1.661E-05	-1.962E+00	-5.625E-05	-5.439E-02	-1.344E-03	 2.998E+02	-3.810E-03	 0.000E+00	 1.078E+06	 6.112E+05	 1.077E+06	 6.103E+05	 1.077E+06	 6.112E+05
    6.7500	-9.970E-03	 1.788E-05	-2.007E+00	-5.797E-05	-5.477E-02	-1.353E-03	 2.855E+02	-5.339E-03	 0.000E+00	 1.077E+06	 6.103E+05	 1.076E+06	 6.094E+05	 1.077E+06	 6.103E+05
    6.8000	-1.000E-02	 1.618E-05	-2.050E+00	-5.191E-05	-5.512E-02	-1.359E-03	 2.890E+02	-7.329E-03	 0.000E+00	 1.076E+06	 6.094E+05	 1.076E+06	 6.085E+05	 1.076E+06	 6.094E+05
    6.8500	-1.003E-02	 1.110E-05	-2.093E+00	-3.697E-05	-5.547E-02	-1.363E-03	 3.124E+02	-9.685E-03	 0.000E+00	 1.076E+06	 6.085E+05	 1.075E+06	 6.076E+05	 1.076E+06	 6.085E+05
    6.9000	-1.006E-02	 2.869E-06	-2.134E+00	-1.367E-05	-5.582E-02	-1.364E-03	 3.485E+02	-1.224E-02	 0.000E+00	 1.075E+06	 6.077E+05	 1.074E+06	 6.068E+05	 1.075E+06	 6.077E+05
    6.9500	-1.009E-02	-7.764E-06	-2.175E+00	 1.609E-05	-5.618E-02	-1.362E-03	 3.818E+02	-1.481E-02	 0.000E+00	 1.074E+06	 6.069E+05	 1.074E+06	 6.060E+05	 1.074E+06	 6.069E+05
    7.0000	-1.013E-02	-1.972E-05	-2.215E+00	 4.955E-05	-5.655E-02	-1.357E-03	 3.907E+02	-1.722E-02	 0.000E+00	 1.074E+06	 6.061E+05	 1.073E+06	 6.051E+05	 1.074E+06	 6.060E+05
    7.0500	-1.017E-02	-3.185E-05	-2.254E+00	 8.365E-05	-5.694E-02	-1.348E-03	 3.503E+02	-1.936E-02	 0.000E+00	 1.073E+06	 6.053E+05	 1.072E+06	 6.043E+05	 1.073E+06	 6.053E+05
    7.1000	-1.023E-02	-4.311E-05	-2.292E+00	 1.156E-04	-5.735E-02	-1.337E-03	 2.406E+02	-2.119E-02	 0.000E+00	 1.073E+06	 6.045E+05	 1.072E+06	 6.036E+05	 1.073E+06	 6.045E+05
    7.1500	-1.029E-02	-5.274E-05	-2.330E+00	 1.434E-04	-5.778E-02	-1.324E-03	 5.805E+01	-2.269E-02	 0.000E+00	 1.072E+06	 6.037E+05	 1.071E+06	 6.028E+05	 1.072E+06	 6.037E+05
    7.2000	-1.036E-02	-6.033E-05	-2.366E+00	 1.656E-04	-5.823E-02	-1.310E-03	-1.771E+02	-2.389E-02	 0.000E+00	 1.071E+06	 6.030E+05	 1.071E+06	 6.021E+05	 1.071E+06	 6.030E+05
    7.2500	-1.043E-02	-6.582E-05	-2.401E+00	 1.820E-04	-5.871E-02	-1.298E-03	-4.252E+02	-2.483E-02	 0.000E+00	 1.071E+06	 6.023E+05	 1.070E+06	 6.013E+05	 1.071E+06	 6.023E+05
    7.3000	-1.051E-02	-6.931E-05	-2.436E+00	 1.926E-04	-5.920E-02	-1.289E-03	-6.402E+02	-2.552E-02	 0.000E+00	 1.070E+06	 6.016E+05	 1.070E+06	 6.006E+05	 1.070E+06	 6.016E+05
    7.3500	-1.060E-02	-7.101E-05	-2.469E+00	 1.978E-04	-5.971E-02	-1.286E-03	-7.835E+02	-2.596E-02	 0.000E+00	 1.070E+06	 6.009E+05	 1.069E+06	 6.000E+05	 1.070E+06	 6.009E+05
    7.4000	-1.069E-02	-7.105E-05	-2.502E+00	 1.979E-04	-6.023E-02	-1.289E-03	-8.322E+02	-2.607E-02	 0.000E+00	 1.069E+06	 6.002E+05	 1.069E+06	 5.993E+05	 1.069E+06	 6.002E+05
    7.4500	-1.079E-02	-6.950E-05	-2.533E+00	 1.932E-04	-6.078E-02	-1.299E-03	-7.819E+02	-2.576E-02	 0.000E+00	 1.069E+06	 5.996E+05	 1.068E+06	 5.986E+05	 1.069E+06	 5.996E+05
    7.5000	-1.090E-02	-6.633E-05	-2.564E+00	 1.835E-04	-6.136E-02	-1.316E-03	-6.460E+02	-2.497E-02	 0.000E+00	 1.068E+06	 5.990E+05	 1.068E+06	 5.980E+05	 1.068E+06	 5.990E+05
    7.5500	-1.101E-02	-6.143E-05	-2.594E+00	 1.687E-04	-6.195E-02	-1.338E-03	-4.546E+02	-2.372E-02	 0.000E+00	 1.068E+06	 5.984E+05	 1.067E+06	 5.974E+05	 1.068E+06	 5.984E+05
    7.6000	-1.113E-02	-5.465E-05	-2.623E+00	 1.484E-04	-6.257E-02	-1.364E-03	-2.470E+02	-2.207E-02	 0.000E+00	 1.068E+06	 5.978E+05	 1.067E+06	 5.968E+05	 1.068E+06	 5.978E+05
    7.6500	-1.126E-02	-4.580E-05	-2.650E+00	 1.222E-04	-6.320E-02	-1.392E-03	-5.983E+01	-2.015E-02	 0.000E+00	 1.067E+06	 5.972E+05	 1.066E+06	 5.962E+05	 1.067E+06	 5.972E+05
    7.7000	-1.139E-02	-3.477E-05	-2.677E+00	 8.974E-05	-6.384E-02	-1.420E-03	 8.405E+01	-1.808E-02	 0.000E+00	 1.067E+06	 5.967E+05	 1.066E+06	 5.957E+05	 1.067E+06	 5.967E+05
    7.7500	-1.152E-02	-2.151E-05	-2.703E+00	 5.106E-05	-6.449E-02	-1.448E-03	 1.777E+02	-1.602E-02	 0.000E+00	 1.066E+06	 5.962E+05	 1.066E+06	 5.952E+05	 1.066E+06	 5.962E+05
    7.8000	-1.166E-02	-6.118E-06	-2.728E+00	 6.513E-06	-6.515E-02	-1.475E-03	 2.246E+02	-1.409E-02	 0.000E+00	 1.066E+06	 5.957E+05	 1.065E+06	 5.946E+05	 1.066E+06	 5.957E+05
    7.8500	-1.179E-02	 1.115E-05	-2.752E+00	-4.307E-05	-6.579E-02	-1.499E-03	 2.303E+02	-1.239E-02	 0.000E+00	 1.066E+06	 5.952E+05	 1.065E+06	 5.941E+05	 1.066E+06	 5.952E+05
    7.9000	-1.192E-02	 2.980E-05	-2.775E+00	-9.622E-05	-6.643E-02	-1.522E-03	 2.001E+02	-1.096E-02	 0.000E+00	 1.065E+06	 5.947E+05	 1.064E+06	 5.937E+05	 1.065E+06	 5.947E+05
    7.9500	-1.204E-02	 4.906E-05	-2.797E+00	-1.507E-04	-6.705E-02	-1.543E-03	 1.395E+02	-9.810E-03	 0.000E+00	 1.065E+06	 5.943E+05	 1.064E+06	 5.932E+05	 1.065E+06	 5.943E+05
    8.0000	-1.216E-02	 6.787E-05	-2.818E+00	-2.034E-04	-6.766E-02	-1.563E-03	 5.660E+01	-8.970E-03	 0.000E+00	 1.065E+06	 5.939E+05	 1.064E+06	 5.928E+05	 1.065E+06	 5.939E+05
    8.0500	-1.227E-02	 8.485E-05	-2.838E+00	-2.508E-04	-6.824E-02	-1.582E-03	-3.915E+01	-8.495E-03	 0.000E+00	 1.064E+06	 5.935E+05	 1.064E+06	 5.924E+05	 1.064E+06	 5.935E+05
    8.1000	-1.237E-02	 9.856E-05	-2.857E+00	-2.887E-04	-6.880E-02	-1.601E-03	-1.370E+02	-8.460E-03	 0.000E+00	 1.064E+06	 5.931E+05	 1.063E+06	 5.920E+05	 1.064E+06	 5.931E+05
    8.1500	-1.246E-02	 1.076E-04	-2.875E+00	-3.136E-04	-6.932E-02	-1.622E-03	-2.233E+02	-8.925E-03	 0.000E+00	 1.064E+06	 5.927E+05	 1.063E+06	 5.916E+05	 1.064E+06	 5.927E+05
    8.2000	-1.254E-02	 1.109E-04	-2.892E+00	-3.227E-04	-6.982E-02	-1.644E-03	-2.806E+02	-9.904E-03	 0.000E+00	 1.064E+06	 5.924E+05	 1.063E+06	 5.913E+05	 1.064E+06	 5.924E+05
    8.2500	-1.261E-02	 1.079E-04	-2.909E+00	-3.144E-04	-7.030E-02	-1.669E-03	-2.907E+02	-1.136E-02	 0.000E+00	 1.063E+06	 5.920E+05	 1.062E+06	 5.909E+05	 1.063E+06	 5.921E+05